<?xml version="1.0" encoding="UTF-8"?>

<!-- generated on 2022-10-01 07:35:31 by Eclipse SUMO sumo Version 1.9.2
<configuration xmlns:xsi="http://www.w3.org/2001/XMLSchema-instance" xsi:noNamespaceSchemaLocation="http://sumo.dlr.de/xsd/sumoConfiguration.xsd">

    <input>
        <net-file value="maps/city1.net.xml"/>
        <route-files value="maps/city1.rou.xml"/>
    </input>

    <output>
        <tripinfo-output value="tripinfo.xml"/>
    </output>

    <time>
        <begin value="0"/>
        <end value="200"/>
    </time>

    <report>
        <verbose value="true"/>
        <no-step-log value="true"/>
    </report>

    <traci_server>
        <remote-port value="50006"/>
    </traci_server>

</configuration>
-->

<tripinfos xmlns:xsi="http://www.w3.org/2001/XMLSchema-instance" xsi:noNamespaceSchemaLocation="http://sumo.dlr.de/xsd/tripinfo_file.xsd">
    <tripinfo id="13" depart="13.00" departLane="-gneE14_0" departPos="5.10" departSpeed="0.00" departDelay="0.00" arrival="23.00" arrivalLane="-gneE14_0" arrivalPos="89.60" arrivalSpeed="14.27" duration="10.00" routeLength="84.50" waitingTime="0.00" waitingCount="0" stopTime="0.00" timeLoss="3.61" rerouteNo="0" devices="tripinfo_13" vType="DEFAULT_VEHTYPE" speedFactor="1.09" vaporized=""/>
    <tripinfo id="8" depart="8.00" departLane="-gneE26_0" departPos="5.10" departSpeed="0.00" departDelay="0.00" arrival="61.00" arrivalLane="gneE14_0" arrivalPos="89.60" arrivalSpeed="14.14" duration="53.00" routeLength="391.59" waitingTime="12.00" waitingCount="1" stopTime="0.00" timeLoss="25.04" rerouteNo="0" devices="tripinfo_8" vType="DEFAULT_VEHTYPE" speedFactor="1.05" vaporized=""/>
    <tripinfo id="30" depart="30.00" departLane="gneE9_0" departPos="5.10" departSpeed="0.00" departDelay="0.00" arrival="71.00" arrivalLane="gneE2_0" arrivalPos="185.60" arrivalSpeed="8.54" duration="41.00" routeLength="379.13" waitingTime="0.00" waitingCount="0" stopTime="0.00" timeLoss="11.95" rerouteNo="0" devices="tripinfo_30" vType="DEFAULT_VEHTYPE" speedFactor="0.98" vaporized=""/>
    <tripinfo id="4" depart="4.00" departLane="-gneE5_0" departPos="5.10" departSpeed="0.00" departDelay="0.00" arrival="75.00" arrivalLane="-gneE1_0" arrivalPos="85.60" arrivalSpeed="13.18" duration="71.00" routeLength="374.92" waitingTime="29.00" waitingCount="2" stopTime="0.00" timeLoss="42.52" rerouteNo="0" devices="tripinfo_4" vType="DEFAULT_VEHTYPE" speedFactor="1.01" vaporized=""/>
    <tripinfo id="17" depart="17.00" departLane="-gneE36_0" departPos="5.10" departSpeed="0.00" departDelay="0.00" arrival="80.00" arrivalLane="gneE12_0" arrivalPos="85.60" arrivalSpeed="13.52" duration="63.00" routeLength="687.49" waitingTime="3.00" waitingCount="1" stopTime="0.00" timeLoss="18.27" rerouteNo="0" devices="tripinfo_17" vType="DEFAULT_VEHTYPE" speedFactor="1.12" vaporized=""/>
    <tripinfo id="33" depart="33.00" departLane="-gneE26_0" departPos="5.10" departSpeed="0.00" departDelay="0.00" arrival="81.00" arrivalLane="-gneE10_0" arrivalPos="96.80" arrivalSpeed="10.62" duration="48.00" routeLength="491.90" waitingTime="0.00" waitingCount="0" stopTime="0.00" timeLoss="4.93" rerouteNo="0" devices="tripinfo_33" vType="DEFAULT_VEHTYPE" speedFactor="0.83" vaporized=""/>
    <tripinfo id="19" depart="19.00" departLane="gneE35_0" departPos="5.10" departSpeed="0.00" departDelay="0.00" arrival="88.00" arrivalLane="gneE13_0" arrivalPos="92.80" arrivalSpeed="12.70" duration="69.00" routeLength="789.32" waitingTime="0.00" waitingCount="0" stopTime="0.00" timeLoss="10.45" rerouteNo="0" devices="tripinfo_19" vType="DEFAULT_VEHTYPE" speedFactor="0.99" vaporized=""/>
    <tripinfo id="9" depart="9.00" departLane="gneE3_0" departPos="5.10" departSpeed="0.00" departDelay="0.00" arrival="91.00" arrivalLane="-gneE0_0" arrivalPos="92.80" arrivalSpeed="12.02" duration="82.00" routeLength="671.38" waitingTime="7.00" waitingCount="1" stopTime="0.00" timeLoss="23.48" rerouteNo="0" devices="tripinfo_9" vType="DEFAULT_VEHTYPE" speedFactor="0.89" vaporized=""/>
    <tripinfo id="47" depart="50.00" departLane="-gneE13_0" departPos="5.10" departSpeed="0.00" departDelay="3.00" arrival="91.00" arrivalLane="-gneE38_0" arrivalPos="296.80" arrivalSpeed="15.54" duration="41.00" routeLength="490.87" waitingTime="0.00" waitingCount="0" stopTime="0.00" timeLoss="10.41" rerouteNo="0" devices="tripinfo_47" vType="DEFAULT_VEHTYPE" speedFactor="1.17" vaporized=""/>
    <tripinfo id="27" depart="27.00" departLane="gneE19_0" departPos="5.10" departSpeed="0.00" departDelay="0.00" arrival="99.00" arrivalLane="gneE17_0" arrivalPos="92.80" arrivalSpeed="14.84" duration="72.00" routeLength="585.39" waitingTime="15.00" waitingCount="1" stopTime="0.00" timeLoss="33.34" rerouteNo="0" devices="tripinfo_27" vType="DEFAULT_VEHTYPE" speedFactor="1.16" vaporized=""/>
    <tripinfo id="90" depart="90.00" departLane="gneE23_0" departPos="5.10" departSpeed="0.00" departDelay="0.00" arrival="100.00" arrivalLane="gneE23_0" arrivalPos="89.60" arrivalSpeed="14.11" duration="10.00" routeLength="84.50" waitingTime="0.00" waitingCount="0" stopTime="0.00" timeLoss="3.07" rerouteNo="0" devices="tripinfo_90" vType="DEFAULT_VEHTYPE" speedFactor="1.02" vaporized=""/>
    <tripinfo id="25" depart="25.00" departLane="-gneE34_0" departPos="5.10" departSpeed="0.00" departDelay="0.00" arrival="107.00" arrivalLane="-gneE22_0" arrivalPos="85.60" arrivalSpeed="9.14" duration="82.00" routeLength="580.18" waitingTime="15.00" waitingCount="2" stopTime="0.00" timeLoss="35.74" rerouteNo="0" devices="tripinfo_25" vType="DEFAULT_VEHTYPE" speedFactor="0.94" vaporized=""/>
    <tripinfo id="53" depart="53.00" departLane="-gneE18_0" departPos="5.10" departSpeed="0.00" departDelay="0.00" arrival="108.00" arrivalLane="-gneE5_0" arrivalPos="85.60" arrivalSpeed="7.97" duration="55.00" routeLength="275.23" waitingTime="14.00" waitingCount="2" stopTime="0.00" timeLoss="31.92" rerouteNo="0" devices="tripinfo_53" vType="DEFAULT_VEHTYPE" speedFactor="0.90" vaporized=""/>
    <tripinfo id="15" depart="15.00" departLane="gneE3_0" departPos="5.10" departSpeed="0.00" departDelay="0.00" arrival="111.00" arrivalLane="gneE26_0" arrivalPos="92.80" arrivalSpeed="13.86" duration="96.00" routeLength="782.22" waitingTime="11.00" waitingCount="3" stopTime="0.00" timeLoss="39.32" rerouteNo="0" devices="tripinfo_15" vType="DEFAULT_VEHTYPE" speedFactor="1.03" vaporized=""/>
    <tripinfo id="35" depart="38.00" departLane="-gneE25_0" departPos="5.10" departSpeed="0.00" departDelay="3.00" arrival="114.00" arrivalLane="gneE6_0" arrivalPos="92.80" arrivalSpeed="11.66" duration="76.00" routeLength="477.06" waitingTime="20.00" waitingCount="1" stopTime="0.00" timeLoss="33.93" rerouteNo="0" devices="tripinfo_35" vType="DEFAULT_VEHTYPE" speedFactor="0.87" vaporized=""/>
    <tripinfo id="73" depart="73.00" departLane="gneE10_0" departPos="5.10" departSpeed="0.00" departDelay="0.00" arrival="114.00" arrivalLane="gneE26_0" arrivalPos="92.80" arrivalSpeed="13.02" duration="41.00" routeLength="491.90" waitingTime="0.00" waitingCount="0" stopTime="0.00" timeLoss="4.63" rerouteNo="0" devices="tripinfo_73" vType="DEFAULT_VEHTYPE" speedFactor="1.00" vaporized=""/>
    <tripinfo id="20" depart="20.00" departLane="gneE22_0" departPos="5.10" departSpeed="0.00" departDelay="0.00" arrival="121.00" arrivalLane="-gneE10_0" arrivalPos="96.80" arrivalSpeed="11.87" duration="101.00" routeLength="579.33" waitingTime="35.00" waitingCount="2" stopTime="0.00" timeLoss="54.25" rerouteNo="0" devices="tripinfo_20" vType="DEFAULT_VEHTYPE" speedFactor="0.93" vaporized=""/>
    <tripinfo id="38" depart="44.00" departLane="gneE4_0" departPos="5.10" departSpeed="0.00" departDelay="6.00" arrival="123.00" arrivalLane="-gneE7_0" arrivalPos="92.80" arrivalSpeed="12.58" duration="79.00" routeLength="587.17" waitingTime="7.00" waitingCount="1" stopTime="0.00" timeLoss="30.32" rerouteNo="0" devices="tripinfo_38" vType="DEFAULT_VEHTYPE" speedFactor="0.92" vaporized=""/>
    <tripinfo id="6" depart="6.00" departLane="-gneE10_0" departPos="5.10" departSpeed="0.00" departDelay="0.00" arrival="125.00" arrivalLane="-gneE21_0" arrivalPos="87.62" arrivalSpeed="13.57" duration="119.00" routeLength="780.42" waitingTime="37.00" waitingCount="2" stopTime="0.00" timeLoss="62.65" rerouteNo="0" devices="tripinfo_6" vType="DEFAULT_VEHTYPE" speedFactor="1.03" vaporized=""/>
    <tripinfo id="16" depart="16.00" departLane="gneE10_0" departPos="5.10" departSpeed="0.00" departDelay="0.00" arrival="130.00" arrivalLane="gneE8_0" arrivalPos="85.60" arrivalSpeed="14.14" duration="114.00" routeLength="683.97" waitingTime="47.00" waitingCount="2" stopTime="0.00" timeLoss="64.44" rerouteNo="0" devices="tripinfo_16" vType="DEFAULT_VEHTYPE" speedFactor="1.05" vaporized=""/>
    <tripinfo id="10" depart="12.00" departLane="gneE3_0" departPos="5.10" departSpeed="0.00" departDelay="2.00" arrival="131.00" arrivalLane="gneE24_0" arrivalPos="85.60" arrivalSpeed="12.03" duration="119.00" routeLength="669.65" waitingTime="42.00" waitingCount="3" stopTime="0.00" timeLoss="65.21" rerouteNo="0" devices="tripinfo_10" vType="DEFAULT_VEHTYPE" speedFactor="0.94" vaporized=""/>
    <tripinfo id="11" depart="11.00" departLane="-gneE32_0" departPos="5.10" departSpeed="0.00" departDelay="0.00" arrival="135.00" arrivalLane="-gneE19_0" arrivalPos="92.80" arrivalSpeed="10.83" duration="124.00" routeLength="1010.21" waitingTime="15.00" waitingCount="2" stopTime="0.00" timeLoss="36.75" rerouteNo="0" devices="tripinfo_11" vType="DEFAULT_VEHTYPE" speedFactor="0.86" vaporized=""/>
    <tripinfo id="52" depart="52.00" departLane="-gneE29_0" departPos="5.10" departSpeed="0.00" departDelay="0.00" arrival="135.00" arrivalLane="gneE21_0" arrivalPos="87.62" arrivalSpeed="7.96" duration="83.00" routeLength="413.15" waitingTime="40.00" waitingCount="1" stopTime="0.00" timeLoss="54.50" rerouteNo="0" devices="tripinfo_52" vType="DEFAULT_VEHTYPE" speedFactor="1.10" vaporized=""/>
    <tripinfo id="63" depart="63.00" departLane="-gneE10_0" departPos="5.10" departSpeed="0.00" departDelay="0.00" arrival="137.00" arrivalLane="gneE5_0" arrivalPos="85.60" arrivalSpeed="13.78" duration="74.00" routeLength="573.14" waitingTime="12.00" waitingCount="1" stopTime="0.00" timeLoss="30.50" rerouteNo="0" devices="tripinfo_63" vType="DEFAULT_VEHTYPE" speedFactor="1.00" vaporized=""/>
    <tripinfo id="127" depart="131.00" departLane="gneE9_0" departPos="5.10" departSpeed="0.00" departDelay="4.00" arrival="141.00" arrivalLane="gneE9_0" arrivalPos="89.60" arrivalSpeed="11.29" duration="10.00" routeLength="84.50" waitingTime="0.00" waitingCount="0" stopTime="0.00" timeLoss="2.81" rerouteNo="0" devices="tripinfo_127" vType="DEFAULT_VEHTYPE" speedFactor="0.91" vaporized=""/>
    <tripinfo id="76" depart="76.00" departLane="-gneE6_0" departPos="5.10" departSpeed="0.00" departDelay="0.00" arrival="145.00" arrivalLane="gneE10_0" arrivalPos="96.80" arrivalSpeed="15.37" duration="69.00" routeLength="596.03" waitingTime="8.00" waitingCount="1" stopTime="0.00" timeLoss="29.84" rerouteNo="0" devices="tripinfo_76" vType="DEFAULT_VEHTYPE" speedFactor="1.14" vaporized=""/>
    <tripinfo id="97" depart="97.00" departLane="-gneE6_0" departPos="5.10" departSpeed="0.00" departDelay="0.00" arrival="145.00" arrivalLane="gneE34_0" arrivalPos="85.60" arrivalSpeed="13.37" duration="48.00" routeLength="282.33" waitingTime="20.00" waitingCount="1" stopTime="0.00" timeLoss="28.18" rerouteNo="0" devices="tripinfo_97" vType="DEFAULT_VEHTYPE" speedFactor="1.06" vaporized=""/>
    <tripinfo id="88" depart="88.00" departLane="-gneE17_0" departPos="5.10" departSpeed="0.00" departDelay="0.00" arrival="148.00" arrivalLane="-gneE5_0" arrivalPos="85.60" arrivalSpeed="5.61" duration="60.00" routeLength="182.33" waitingTime="29.00" waitingCount="1" stopTime="0.00" timeLoss="44.56" rerouteNo="0" devices="tripinfo_88" vType="DEFAULT_VEHTYPE" speedFactor="0.91" vaporized=""/>
    <tripinfo id="31" depart="31.00" departLane="gneE11_0" departPos="5.10" departSpeed="0.00" departDelay="0.00" arrival="156.00" arrivalLane="gneE23_0" arrivalPos="89.60" arrivalSpeed="11.62" duration="125.00" routeLength="875.51" waitingTime="33.00" waitingCount="2" stopTime="0.00" timeLoss="52.77" rerouteNo="0" devices="tripinfo_31" vType="DEFAULT_VEHTYPE" speedFactor="0.89" vaporized=""/>
    <tripinfo id="49" depart="49.00" departLane="gneE8_0" departPos="5.10" departSpeed="0.00" departDelay="0.00" arrival="162.00" arrivalLane="gneE34_0" arrivalPos="85.60" arrivalSpeed="12.96" duration="113.00" routeLength="781.73" waitingTime="31.00" waitingCount="2" stopTime="0.00" timeLoss="56.38" rerouteNo="0" devices="tripinfo_49" vType="DEFAULT_VEHTYPE" speedFactor="1.02" vaporized=""/>
    <tripinfo id="7" depart="7.00" departLane="gneE19_0" departPos="5.10" departSpeed="0.00" departDelay="0.00" arrival="173.00" arrivalLane="gneE11_0" arrivalPos="92.80" arrivalSpeed="11.40" duration="166.00" routeLength="678.58" waitingTime="83.00" waitingCount="3" stopTime="0.00" timeLoss="103.99" rerouteNo="0" devices="tripinfo_7" vType="DEFAULT_VEHTYPE" speedFactor="0.83" vaporized=""/>
    <tripinfo id="70" depart="71.00" departLane="-gneE8_0" departPos="5.10" departSpeed="0.00" departDelay="1.00" arrival="175.00" arrivalLane="gneE12_0" arrivalPos="85.60" arrivalSpeed="9.49" duration="104.00" routeLength="469.76" waitingTime="44.00" waitingCount="2" stopTime="0.00" timeLoss="69.18" rerouteNo="0" devices="tripinfo_70" vType="DEFAULT_VEHTYPE" speedFactor="1.02" vaporized=""/>
    <tripinfo id="51" depart="51.00" departLane="gneE20_0" departPos="5.10" departSpeed="0.00" departDelay="0.00" arrival="176.00" arrivalLane="gneE11_0" arrivalPos="92.80" arrivalSpeed="15.36" duration="125.00" routeLength="584.16" waitingTime="70.00" waitingCount="1" stopTime="0.00" timeLoss="87.94" rerouteNo="0" devices="tripinfo_51" vType="DEFAULT_VEHTYPE" speedFactor="1.18" vaporized=""/>
    <tripinfo id="86" depart="86.00" departLane="-gneE8_0" departPos="5.10" departSpeed="0.00" departDelay="0.00" arrival="178.00" arrivalLane="gneE3_0" arrivalPos="185.60" arrivalSpeed="10.66" duration="92.00" routeLength="375.13" waitingTime="37.00" waitingCount="2" stopTime="0.00" timeLoss="60.39" rerouteNo="0" devices="tripinfo_86" vType="DEFAULT_VEHTYPE" speedFactor="0.88" vaporized=""/>
    <tripinfo id="134" depart="134.00" departLane="gneE19_0" departPos="5.10" departSpeed="0.00" departDelay="0.00" arrival="179.00" arrivalLane="-gneE0_0" arrivalPos="92.80" arrivalSpeed="12.61" duration="45.00" routeLength="394.48" waitingTime="0.00" waitingCount="0" stopTime="0.00" timeLoss="13.14" rerouteNo="0" devices="tripinfo_134" vType="DEFAULT_VEHTYPE" speedFactor="0.95" vaporized=""/>
    <tripinfo id="85" depart="85.00" departLane="gneE5_0" departPos="5.10" departSpeed="0.00" departDelay="0.00" arrival="180.00" arrivalLane="gneE13_0" arrivalPos="92.80" arrivalSpeed="12.12" duration="95.00" routeLength="287.49" waitingTime="59.00" waitingCount="1" stopTime="0.00" timeLoss="71.90" rerouteNo="0" devices="tripinfo_85" vType="DEFAULT_VEHTYPE" speedFactor="0.94" vaporized=""/>
    <tripinfo id="60" depart="60.00" departLane="gneE25_0" departPos="5.10" departSpeed="0.00" departDelay="0.00" arrival="182.00" arrivalLane="gneE11_0" arrivalPos="92.80" arrivalSpeed="14.25" duration="122.00" routeLength="589.00" waitingTime="55.00" waitingCount="2" stopTime="0.00" timeLoss="79.35" rerouteNo="0" devices="tripinfo_60" vType="DEFAULT_VEHTYPE" speedFactor="1.09" vaporized=""/>
    <tripinfo id="0" depart="0.00" departLane="gneE18_0" departPos="5.10" departSpeed="0.00" departDelay="0.00" arrival="186.00" arrivalLane="-gneE1_0" arrivalPos="85.60" arrivalSpeed="13.45" duration="186.00" routeLength="682.01" waitingTime="112.00" waitingCount="3" stopTime="0.00" timeLoss="137.68" rerouteNo="0" devices="tripinfo_0" vType="DEFAULT_VEHTYPE" speedFactor="1.06" vaporized=""/>
    <tripinfo id="80" depart="80.00" departLane="-gneE13_0" departPos="5.10" departSpeed="0.00" departDelay="0.00" arrival="186.00" arrivalLane="gneE2_0" arrivalPos="185.60" arrivalSpeed="7.94" duration="106.00" routeLength="678.61" waitingTime="24.00" waitingCount="3" stopTime="0.00" timeLoss="54.39" rerouteNo="0" devices="tripinfo_80" vType="DEFAULT_VEHTYPE" speedFactor="0.97" vaporized=""/>
    <tripinfo id="24" depart="24.00" departLane="gneE18_0" departPos="5.10" departSpeed="0.00" departDelay="0.00" arrival="188.00" arrivalLane="-gneE35_0" arrivalPos="292.80" arrivalSpeed="10.91" duration="164.00" routeLength="889.00" waitingTime="63.00" waitingCount="2" stopTime="0.00" timeLoss="87.40" rerouteNo="0" devices="tripinfo_24" vType="DEFAULT_VEHTYPE" speedFactor="0.88" vaporized=""/>
    <tripinfo id="58" depart="58.00" departLane="-gneE30_0" departPos="5.10" departSpeed="0.00" departDelay="0.00" arrival="191.00" arrivalLane="gneE2_0" arrivalPos="185.60" arrivalSpeed="11.54" duration="133.00" routeLength="978.81" waitingTime="36.00" waitingCount="2" stopTime="0.00" timeLoss="64.28" rerouteNo="0" devices="tripinfo_58" vType="DEFAULT_VEHTYPE" speedFactor="1.04" vaporized=""/>
    <tripinfo id="40" depart="40.00" departLane="gneE11_0" departPos="5.10" departSpeed="0.00" departDelay="0.00" arrival="192.00" arrivalLane="-gneE25_0" arrivalPos="92.80" arrivalSpeed="15.48" duration="152.00" routeLength="1067.97" waitingTime="43.00" waitingCount="3" stopTime="0.00" timeLoss="81.98" rerouteNo="0" devices="tripinfo_40" vType="DEFAULT_VEHTYPE" speedFactor="1.13" vaporized=""/>
    <tripinfo id="136" depart="136.00" departLane="gneE2_0" departPos="5.10" departSpeed="0.00" departDelay="0.00" arrival="192.00" arrivalLane="gneE6_0" arrivalPos="92.80" arrivalSpeed="11.67" duration="56.00" routeLength="287.70" waitingTime="22.00" waitingCount="1" stopTime="0.00" timeLoss="32.07" rerouteNo="0" devices="tripinfo_136" vType="DEFAULT_VEHTYPE" speedFactor="0.89" vaporized=""/>
    <tripinfo id="125" depart="125.00" departLane="-gneE31_0" departPos="5.10" departSpeed="0.00" departDelay="0.00" arrival="193.00" arrivalLane="gneE28_0" arrivalPos="216.45" arrivalSpeed="13.48" duration="68.00" routeLength="503.77" waitingTime="14.00" waitingCount="1" stopTime="0.00" timeLoss="31.57" rerouteNo="0" devices="tripinfo_125" vType="DEFAULT_VEHTYPE" speedFactor="1.06" vaporized=""/>
    <tripinfo id="110" depart="110.00" departLane="gneE7_0" departPos="5.10" departSpeed="0.00" departDelay="0.00" arrival="194.00" arrivalLane="gneE14_0" arrivalPos="89.60" arrivalSpeed="15.70" duration="84.00" routeLength="580.85" waitingTime="19.00" waitingCount="2" stopTime="0.00" timeLoss="45.80" rerouteNo="0" devices="tripinfo_110" vType="DEFAULT_VEHTYPE" speedFactor="1.15" vaporized=""/>
    <tripinfo id="126" depart="129.00" departLane="-gneE13_0" departPos="5.10" departSpeed="0.00" departDelay="3.00" arrival="195.00" arrivalLane="-gneE7_0" arrivalPos="92.80" arrivalSpeed="13.95" duration="66.00" routeLength="583.84" waitingTime="2.00" waitingCount="1" stopTime="0.00" timeLoss="20.79" rerouteNo="0" devices="tripinfo_126" vType="DEFAULT_VEHTYPE" speedFactor="1.01" vaporized=""/>
    <tripinfo id="141" depart="144.00" departLane="gneE18_0" departPos="5.10" departSpeed="0.00" departDelay="3.00" arrival="195.00" arrivalLane="-gneE25_0" arrivalPos="92.80" arrivalSpeed="13.31" duration="51.00" routeLength="284.16" waitingTime="11.00" waitingCount="2" stopTime="0.00" timeLoss="28.02" rerouteNo="0" devices="tripinfo_141" vType="DEFAULT_VEHTYPE" speedFactor="0.96" vaporized=""/>
    <tripinfo id="146" depart="147.00" departLane="gneE18_0" departPos="5.10" departSpeed="0.00" departDelay="1.00" arrival="197.00" arrivalLane="-gneE25_0" arrivalPos="92.80" arrivalSpeed="15.12" duration="50.00" routeLength="284.16" waitingTime="9.00" waitingCount="1" stopTime="0.00" timeLoss="29.53" rerouteNo="0" devices="tripinfo_146" vType="DEFAULT_VEHTYPE" speedFactor="1.10" vaporized=""/>
    <tripinfo id="138" depart="138.00" departLane="-gneE17_0" departPos="5.10" departSpeed="0.00" departDelay="0.00" arrival="198.00" arrivalLane="gneE12_0" arrivalPos="85.60" arrivalSpeed="6.79" duration="60.00" routeLength="187.49" waitingTime="28.00" waitingCount="2" stopTime="0.00" timeLoss="45.86" rerouteNo="0" devices="tripinfo_138" vType="DEFAULT_VEHTYPE" speedFactor="1.01" vaporized=""/>
    <tripinfo id="55" depart="55.00" departLane="gneE38_0" departPos="5.10" departSpeed="0.00" departDelay="0.00" arrival="200.00" arrivalLane="-gneE25_0" arrivalPos="92.80" arrivalSpeed="12.92" duration="145.00" routeLength="880.23" waitingTime="54.00" waitingCount="1" stopTime="0.00" timeLoss="75.53" rerouteNo="0" devices="tripinfo_55" vType="DEFAULT_VEHTYPE" speedFactor="0.96" vaporized=""/>
    <tripinfo id="5" depart="5.00" departLane="-gneE25_0" departPos="5.10" departSpeed="0.00" departDelay="0.00" arrival="201.00" arrivalLane="gneE1_0" arrivalPos="85.60" arrivalSpeed="10.13" duration="196.00" routeLength="774.81" waitingTime="113.00" waitingCount="3" stopTime="0.00" timeLoss="142.00" rerouteNo="0" devices="tripinfo_5" vType="DEFAULT_VEHTYPE" speedFactor="1.08" vaporized=""/>
    <tripinfo id="56" depart="56.00" departLane="gneE0_0" departPos="5.10" departSpeed="0.00" departDelay="0.00" arrival="202.00" arrivalLane="-gneE20_0" arrivalPos="92.80" arrivalSpeed="15.14" duration="146.00" routeLength="284.16" waitingTime="116.00" waitingCount="1" stopTime="0.00" timeLoss="126.06" rerouteNo="0" devices="tripinfo_56" vType="DEFAULT_VEHTYPE" speedFactor="1.09" vaporized=""/>
    <tripinfo id="124" depart="124.00" departLane="gneE2_0" departPos="5.10" departSpeed="0.00" departDelay="0.00" arrival="204.00" arrivalLane="-gneE3_0" arrivalPos="185.60" arrivalSpeed="14.21" duration="80.00" routeLength="480.08" waitingTime="33.00" waitingCount="1" stopTime="0.00" timeLoss="46.31" rerouteNo="0" devices="tripinfo_124" vType="DEFAULT_VEHTYPE" speedFactor="1.09" vaporized=""/>
    <tripinfo id="43" depart="43.00" departLane="gneE9_0" departPos="5.10" departSpeed="0.00" departDelay="0.00" arrival="205.00" arrivalLane="gneE1_0" arrivalPos="85.60" arrivalSpeed="12.14" duration="162.00" routeLength="778.50" waitingTime="86.00" waitingCount="2" stopTime="0.00" timeLoss="111.42" rerouteNo="0" devices="tripinfo_43" vType="DEFAULT_VEHTYPE" speedFactor="1.18" vaporized=""/>
    <tripinfo id="2" depart="2.00" departLane="gneE24_0" departPos="5.10" departSpeed="0.00" departDelay="0.00" arrival="206.00" arrivalLane="gneE23_0" arrivalPos="89.60" arrivalSpeed="11.79" duration="204.00" routeLength="768.59" waitingTime="110.00" waitingCount="4" stopTime="0.00" timeLoss="142.07" rerouteNo="0" devices="tripinfo_2" vType="DEFAULT_VEHTYPE" speedFactor="0.94" vaporized=""/>
    <tripinfo id="26" depart="26.00" departLane="-gneE29_0" departPos="5.10" departSpeed="0.00" departDelay="0.00" arrival="206.00" arrivalLane="gneE5_0" arrivalPos="85.60" arrivalSpeed="12.36" duration="180.00" routeLength="707.67" waitingTime="104.00" waitingCount="2" stopTime="0.00" timeLoss="122.29" rerouteNo="0" devices="tripinfo_26" vType="DEFAULT_VEHTYPE" speedFactor="0.94" vaporized=""/>
    <tripinfo id="107" depart="107.00" departLane="gneE7_0" departPos="5.10" departSpeed="0.00" departDelay="0.00" arrival="208.00" arrivalLane="gneE9_0" arrivalPos="89.60" arrivalSpeed="13.22" duration="101.00" routeLength="773.34" waitingTime="22.00" waitingCount="2" stopTime="0.00" timeLoss="44.99" rerouteNo="0" devices="tripinfo_107" vType="DEFAULT_VEHTYPE" speedFactor="1.02" vaporized=""/>
    <tripinfo id="94" depart="94.00" departLane="-gneE24_0" departPos="5.10" departSpeed="0.00" departDelay="0.00" arrival="210.00" arrivalLane="-gneE6_0" arrivalPos="92.80" arrivalSpeed="8.35" duration="116.00" routeLength="380.39" waitingTime="69.00" waitingCount="2" stopTime="0.00" timeLoss="87.08" rerouteNo="0" devices="tripinfo_94" vType="DEFAULT_VEHTYPE" speedFactor="0.97" vaporized=""/>
    <tripinfo id="87" depart="87.00" departLane="gneE3_0" departPos="5.10" departSpeed="0.00" departDelay="0.00" arrival="212.00" arrivalLane="-gneE21_0" arrivalPos="87.62" arrivalSpeed="11.89" duration="125.00" routeLength="576.83" waitingTime="54.00" waitingCount="2" stopTime="0.00" timeLoss="76.12" rerouteNo="0" devices="tripinfo_87" vType="DEFAULT_VEHTYPE" speedFactor="0.91" vaporized=""/>
    <tripinfo id="164" depart="168.00" departLane="gneE3_0" departPos="5.10" departSpeed="0.00" departDelay="4.00" arrival="217.00" arrivalLane="gneE34_0" arrivalPos="85.60" arrivalSpeed="14.21" duration="49.00" routeLength="280.29" waitingTime="18.00" waitingCount="1" stopTime="0.00" timeLoss="29.32" rerouteNo="0" devices="tripinfo_164" vType="DEFAULT_VEHTYPE" speedFactor="1.10" vaporized=""/>
    <tripinfo id="71" depart="71.00" departLane="-gneE28_0" departPos="5.10" departSpeed="0.00" departDelay="0.00" arrival="218.00" arrivalLane="gneE34_0" arrivalPos="85.60" arrivalSpeed="15.00" duration="147.00" routeLength="699.16" waitingTime="75.00" waitingCount="2" stopTime="0.00" timeLoss="99.35" rerouteNo="0" devices="tripinfo_71" vType="DEFAULT_VEHTYPE" speedFactor="1.10" vaporized=""/>
    <tripinfo id="84" depart="84.00" departLane="-gneE25_0" departPos="5.10" departSpeed="0.00" departDelay="0.00" arrival="218.00" arrivalLane="-gneE18_0" arrivalPos="92.80" arrivalSpeed="12.96" duration="134.00" routeLength="766.42" waitingTime="46.00" waitingCount="2" stopTime="0.00" timeLoss="75.26" rerouteNo="0" devices="tripinfo_84" vType="DEFAULT_VEHTYPE" speedFactor="0.99" vaporized=""/>
    <tripinfo id="48" depart="59.00" departLane="gneE9_0" departPos="5.10" departSpeed="0.00" departDelay="11.00" arrival="219.00" arrivalLane="gneE10_0" arrivalPos="96.80" arrivalSpeed="13.41" duration="160.00" routeLength="1076.72" waitingTime="45.00" waitingCount="2" stopTime="0.00" timeLoss="77.98" rerouteNo="0" devices="tripinfo_48" vType="DEFAULT_VEHTYPE" speedFactor="0.99" vaporized=""/>
    <tripinfo id="161" depart="165.00" departLane="gneE3_0" departPos="5.10" departSpeed="0.00" departDelay="4.00" arrival="219.00" arrivalLane="gneE36_0" arrivalPos="292.80" arrivalSpeed="12.52" duration="54.00" routeLength="582.12" waitingTime="0.00" waitingCount="0" stopTime="0.00" timeLoss="9.52" rerouteNo="0" devices="tripinfo_161" vType="DEFAULT_VEHTYPE" speedFactor="0.99" vaporized=""/>
    <tripinfo id="28" depart="28.00" departLane="-gneE22_0" departPos="5.10" departSpeed="0.00" departDelay="0.00" arrival="220.00" arrivalLane="gneE26_0" arrivalPos="92.80" arrivalSpeed="13.26" duration="192.00" routeLength="787.27" waitingTime="103.00" waitingCount="4" stopTime="0.00" timeLoss="134.32" rerouteNo="0" devices="tripinfo_28" vType="DEFAULT_VEHTYPE" speedFactor="1.02" vaporized=""/>
    <tripinfo id="118" depart="118.00" departLane="gneE38_0" departPos="5.10" departSpeed="0.00" departDelay="0.00" arrival="220.00" arrivalLane="-gneE24_0" arrivalPos="85.60" arrivalSpeed="11.67" duration="102.00" routeLength="683.56" waitingTime="28.00" waitingCount="1" stopTime="0.00" timeLoss="44.30" rerouteNo="0" devices="tripinfo_118" vType="DEFAULT_VEHTYPE" speedFactor="0.89" vaporized=""/>
    <tripinfo id="68" depart="68.00" departLane="-gneE13_0" departPos="5.10" departSpeed="0.00" departDelay="0.00" arrival="222.00" arrivalLane="gneE28_0" arrivalPos="216.45" arrivalSpeed="15.90" duration="154.00" routeLength="798.93" waitingTime="69.00" waitingCount="3" stopTime="0.00" timeLoss="101.39" rerouteNo="0" devices="tripinfo_68" vType="DEFAULT_VEHTYPE" speedFactor="1.17" vaporized=""/>
    <tripinfo id="74" depart="75.00" departLane="-gneE24_0" departPos="5.10" departSpeed="0.00" departDelay="1.00" arrival="222.00" arrivalLane="-gneE3_0" arrivalPos="185.60" arrivalSpeed="12.12" duration="147.00" routeLength="674.81" waitingTime="61.00" waitingCount="3" stopTime="0.00" timeLoss="90.71" rerouteNo="0" devices="tripinfo_74" vType="DEFAULT_VEHTYPE" speedFactor="0.90" vaporized=""/>
    <tripinfo id="194" depart="194.00" departLane="gneE6_0" departPos="5.10" departSpeed="0.00" departDelay="0.00" arrival="223.00" arrivalLane="gneE23_0" arrivalPos="89.60" arrivalSpeed="8.25" duration="29.00" routeLength="284.60" waitingTime="0.00" waitingCount="0" stopTime="0.00" timeLoss="10.93" rerouteNo="0" devices="tripinfo_194" vType="DEFAULT_VEHTYPE" speedFactor="1.16" vaporized=""/>
    <tripinfo id="50" depart="51.00" departLane="-gneE1_0" departPos="5.10" departSpeed="0.00" departDelay="1.00" arrival="226.00" arrivalLane="gneE26_0" arrivalPos="92.80" arrivalSpeed="12.97" duration="175.00" routeLength="876.85" waitingTime="84.00" waitingCount="2" stopTime="0.00" timeLoss="107.71" rerouteNo="0" devices="tripinfo_50" vType="DEFAULT_VEHTYPE" speedFactor="0.97" vaporized=""/>
    <tripinfo id="108" depart="108.00" departLane="gneE11_0" departPos="5.10" departSpeed="0.00" departDelay="0.00" arrival="227.00" arrivalLane="gneE25_0" arrivalPos="92.80" arrivalSpeed="9.62" duration="119.00" routeLength="965.93" waitingTime="8.00" waitingCount="2" stopTime="0.00" timeLoss="44.30" rerouteNo="0" devices="tripinfo_108" vType="DEFAULT_VEHTYPE" speedFactor="0.97" vaporized=""/>
    <tripinfo id="93" depart="93.00" departLane="gneE35_0" departPos="5.10" departSpeed="0.00" departDelay="0.00" arrival="229.00" arrivalLane="-gneE24_0" arrivalPos="85.60" arrivalSpeed="13.52" duration="136.00" routeLength="982.01" waitingTime="38.00" waitingCount="2" stopTime="0.00" timeLoss="64.07" rerouteNo="0" devices="tripinfo_93" vType="DEFAULT_VEHTYPE" speedFactor="1.02" vaporized=""/>
    <tripinfo id="128" depart="134.00" departLane="-gneE13_0" departPos="5.10" departSpeed="0.00" departDelay="6.00" arrival="229.00" arrivalLane="-gneE22_0" arrivalPos="85.60" arrivalSpeed="5.83" duration="95.00" routeLength="476.85" waitingTime="39.00" waitingCount="2" stopTime="0.00" timeLoss="61.52" rerouteNo="0" devices="tripinfo_128" vType="DEFAULT_VEHTYPE" speedFactor="1.12" vaporized=""/>