<?xml version="1.0" encoding="UTF-8"?>

<!-- generated on 2022-10-02 14:42:55 by Eclipse SUMO GUI Version 1.14.1
<configuration xmlns:xsi="http://www.w3.org/2001/XMLSchema-instance" xsi:noNamespaceSchemaLocation="http://sumo.dlr.de/xsd/sumoConfiguration.xsd">

    <input>
        <net-file value="maps/city0.net.xml"/>
        <route-files value="maps/routes0.rou.xml"/>
    </input>

    <output>
        <tripinfo-output value="tripinfo.xml"/>
    </output>

    <time>
        <begin value="0"/>
        <end value="200"/>
    </time>

    <report>
        <verbose value="true"/>
        <no-step-log value="true"/>
    </report>

    <traci_server>
        <remote-port value="56122"/>
    </traci_server>

</configuration>
-->

<tripinfos xmlns:xsi="http://www.w3.org/2001/XMLSchema-instance" xsi:noNamespaceSchemaLocation="http://sumo.dlr.de/xsd/tripinfo_file.xsd">
    <tripinfo id="0" depart="0.00" departLane="-gneE14_0" departPos="5.10" departSpeed="0.00" departDelay="0.00" arrival="18.00" arrivalLane="-gneE12_0" arrivalPos="92.80" arrivalSpeed="13.82" duration="18.00" routeLength="194.90" waitingTime="0.00" waitingCount="0" stopTime="0.00" timeLoss="3.95" rerouteNo="0" devices="tripinfo_0" vType="DEFAULT_VEHTYPE" speedFactor="1.06" vaporized=""/>
    <tripinfo id="2" depart="3.00" departLane="-gneE14_0" departPos="5.10" departSpeed="0.00" departDelay="1.00" arrival="24.00" arrivalLane="gneE13_0" arrivalPos="92.80" arrivalSpeed="13.79" duration="21.00" routeLength="189.53" waitingTime="0.00" waitingCount="0" stopTime="0.00" timeLoss="5.72" rerouteNo="0" devices="tripinfo_2" vType="DEFAULT_VEHTYPE" speedFactor="1.01" vaporized=""/>
    <tripinfo id="5" depart="5.00" departLane="-gneE11_0" departPos="5.10" departSpeed="0.00" departDelay="0.00" arrival="27.00" arrivalLane="gneE13_0" arrivalPos="92.80" arrivalSpeed="13.77" duration="22.00" routeLength="194.90" waitingTime="0.00" waitingCount="0" stopTime="0.00" timeLoss="8.28" rerouteNo="0" devices="tripinfo_5" vType="DEFAULT_VEHTYPE" speedFactor="1.03" vaporized=""/>
    <tripinfo id="6" depart="8.00" departLane="-gneE11_0" departPos="5.10" departSpeed="0.00" departDelay="2.00" arrival="32.00" arrivalLane="-gneE12_0" arrivalPos="92.80" arrivalSpeed="10.31" duration="24.00" routeLength="194.70" waitingTime="0.00" waitingCount="0" stopTime="0.00" timeLoss="5.26" rerouteNo="0" devices="tripinfo_6" vType="DEFAULT_VEHTYPE" speedFactor="0.83" vaporized=""/>
    <tripinfo id="8" depart="11.00" departLane="-gneE11_0" departPos="5.10" departSpeed="0.00" departDelay="3.00" arrival="32.00" arrivalLane="gneE13_0" arrivalPos="92.80" arrivalSpeed="11.06" duration="21.00" routeLength="194.90" waitingTime="0.00" waitingCount="0" stopTime="0.00" timeLoss="4.87" rerouteNo="0" devices="tripinfo_8" vType="DEFAULT_VEHTYPE" speedFactor="0.89" vaporized=""/>
    <tripinfo id="13" depart="14.00" departLane="-gneE11_0" departPos="5.10" departSpeed="0.00" departDelay="1.00" arrival="34.00" arrivalLane="-gneE12_0" arrivalPos="92.80" arrivalSpeed="13.08" duration="20.00" routeLength="194.70" waitingTime="0.00" waitingCount="0" stopTime="0.00" timeLoss="5.42" rerouteNo="0" devices="tripinfo_13" vType="DEFAULT_VEHTYPE" speedFactor="1.03" vaporized=""/>
    <tripinfo id="10" depart="10.00" departLane="gneE12_0" departPos="5.10" departSpeed="0.00" departDelay="0.00" arrival="44.00" arrivalLane="gneE13_0" arrivalPos="92.80" arrivalSpeed="12.79" duration="34.00" routeLength="194.70" waitingTime="11.00" waitingCount="1" stopTime="0.00" timeLoss="18.20" rerouteNo="0" devices="tripinfo_10" vType="DEFAULT_VEHTYPE" speedFactor="0.94" vaporized=""/>
    <tripinfo id="12" depart="13.00" departLane="gneE12_0" departPos="5.10" departSpeed="0.00" departDelay="1.00" arrival="46.00" arrivalLane="gneE11_0" arrivalPos="92.80" arrivalSpeed="15.07" duration="33.00" routeLength="189.53" waitingTime="8.00" waitingCount="1" stopTime="0.00" timeLoss="19.14" rerouteNo="0" devices="tripinfo_12" vType="DEFAULT_VEHTYPE" speedFactor="1.09" vaporized=""/>
    <tripinfo id="14" depart="16.00" departLane="gneE12_0" departPos="5.10" departSpeed="0.00" departDelay="2.00" arrival="48.00" arrivalLane="gneE13_0" arrivalPos="92.80" arrivalSpeed="13.26" duration="32.00" routeLength="194.70" waitingTime="7.00" waitingCount="1" stopTime="0.00" timeLoss="17.82" rerouteNo="0" devices="tripinfo_14" vType="DEFAULT_VEHTYPE" speedFactor="1.05" vaporized=""/>
    <tripinfo id="15" depart="19.00" departLane="gneE12_0" departPos="5.10" departSpeed="0.00" departDelay="4.00" arrival="50.00" arrivalLane="gneE13_0" arrivalPos="92.80" arrivalSpeed="15.55" duration="31.00" routeLength="194.70" waitingTime="5.00" waitingCount="1" stopTime="0.00" timeLoss="17.46" rerouteNo="0" devices="tripinfo_15" vType="DEFAULT_VEHTYPE" speedFactor="1.12" vaporized=""/>
    <tripinfo id="18" depart="22.00" departLane="gneE12_0" departPos="5.10" departSpeed="0.00" departDelay="4.00" arrival="53.00" arrivalLane="gneE13_0" arrivalPos="92.80" arrivalSpeed="13.14" duration="31.00" routeLength="194.70" waitingTime="3.00" waitingCount="1" stopTime="0.00" timeLoss="15.47" rerouteNo="0" devices="tripinfo_18" vType="DEFAULT_VEHTYPE" speedFactor="0.99" vaporized=""/>
    <tripinfo id="19" depart="25.00" departLane="gneE12_0" departPos="5.10" departSpeed="0.00" departDelay="6.00" arrival="56.00" arrivalLane="gneE13_0" arrivalPos="92.80" arrivalSpeed="12.08" duration="31.00" routeLength="194.70" waitingTime="2.00" waitingCount="1" stopTime="0.00" timeLoss="14.76" rerouteNo="0" devices="tripinfo_19" vType="DEFAULT_VEHTYPE" speedFactor="0.93" vaporized=""/>
    <tripinfo id="30" depart="30.00" departLane="gneE12_0" departPos="5.10" departSpeed="0.00" departDelay="0.00" arrival="59.00" arrivalLane="gneE13_0" arrivalPos="92.80" arrivalSpeed="12.26" duration="29.00" routeLength="194.70" waitingTime="0.00" waitingCount="0" stopTime="0.00" timeLoss="11.55" rerouteNo="0" devices="tripinfo_30" vType="DEFAULT_VEHTYPE" speedFactor="0.89" vaporized=""/>
    <tripinfo id="32" depart="33.00" departLane="gneE12_0" departPos="5.10" departSpeed="0.00" departDelay="1.00" arrival="60.00" arrivalLane="gneE14_0" arrivalPos="92.80" arrivalSpeed="11.88" duration="27.00" routeLength="194.90" waitingTime="0.00" waitingCount="0" stopTime="0.00" timeLoss="9.96" rerouteNo="0" devices="tripinfo_32" vType="DEFAULT_VEHTYPE" speedFactor="0.87" vaporized=""/>
    <tripinfo id="36" depart="36.00" departLane="gneE12_0" departPos="5.10" departSpeed="0.00" departDelay="0.00" arrival="63.00" arrivalLane="gneE11_0" arrivalPos="92.80" arrivalSpeed="11.81" duration="27.00" routeLength="189.53" waitingTime="0.00" waitingCount="0" stopTime="0.00" timeLoss="11.00" rerouteNo="0" devices="tripinfo_36" vType="DEFAULT_VEHTYPE" speedFactor="0.93" vaporized=""/>
    <tripinfo id="38" depart="39.00" departLane="gneE12_0" departPos="5.10" departSpeed="0.00" departDelay="1.00" arrival="64.00" arrivalLane="gneE11_0" arrivalPos="92.80" arrivalSpeed="15.69" duration="25.00" routeLength="189.53" waitingTime="0.00" waitingCount="0" stopTime="0.00" timeLoss="12.03" rerouteNo="0" devices="tripinfo_38" vType="DEFAULT_VEHTYPE" speedFactor="1.15" vaporized=""/>
    <tripinfo id="43" depart="43.00" departLane="gneE12_0" departPos="5.10" departSpeed="0.00" departDelay="0.00" arrival="67.00" arrivalLane="gneE13_0" arrivalPos="92.80" arrivalSpeed="13.98" duration="24.00" routeLength="194.70" waitingTime="0.00" waitingCount="0" stopTime="0.00" timeLoss="8.77" rerouteNo="0" devices="tripinfo_43" vType="DEFAULT_VEHTYPE" speedFactor="1.02" vaporized=""/>
    <tripinfo id="46" depart="46.00" departLane="gneE12_0" departPos="5.10" departSpeed="0.00" departDelay="0.00" arrival="68.00" arrivalLane="gneE11_0" arrivalPos="92.80" arrivalSpeed="14.28" duration="22.00" routeLength="189.53" waitingTime="0.00" waitingCount="0" stopTime="0.00" timeLoss="9.03" rerouteNo="0" devices="tripinfo_46" vType="DEFAULT_VEHTYPE" speedFactor="1.10" vaporized=""/>
    <tripinfo id="48" depart="49.00" departLane="gneE12_0" departPos="5.10" departSpeed="0.00" departDelay="1.00" arrival="73.00" arrivalLane="gneE13_0" arrivalPos="92.80" arrivalSpeed="11.22" duration="24.00" routeLength="194.70" waitingTime="0.00" waitingCount="0" stopTime="0.00" timeLoss="7.03" rerouteNo="0" devices="tripinfo_48" vType="DEFAULT_VEHTYPE" speedFactor="0.90" vaporized=""/>
    <tripinfo id="49" depart="52.00" departLane="gneE12_0" departPos="5.10" departSpeed="0.00" departDelay="3.00" arrival="73.00" arrivalLane="gneE14_0" arrivalPos="92.80" arrivalSpeed="13.45" duration="21.00" routeLength="194.90" waitingTime="0.00" waitingCount="0" stopTime="0.00" timeLoss="6.57" rerouteNo="0" devices="tripinfo_49" vType="DEFAULT_VEHTYPE" speedFactor="1.03" vaporized=""/>
    <tripinfo id="7" depart="7.00" departLane="-gneE14_0" departPos="5.10" departSpeed="0.00" departDelay="0.00" arrival="75.00" arrivalLane="gneE13_0" arrivalPos="92.80" arrivalSpeed="14.38" duration="68.00" routeLength="189.53" waitingTime="46.00" waitingCount="1" stopTime="0.00" timeLoss="54.06" rerouteNo="0" devices="tripinfo_7" vType="DEFAULT_VEHTYPE" speedFactor="1.05" vaporized=""/>
    <tripinfo id="20" depart="20.00" departLane="-gneE14_0" departPos="5.10" departSpeed="0.00" departDelay="0.00" arrival="79.00" arrivalLane="-gneE12_0" arrivalPos="92.80" arrivalSpeed="11.43" duration="59.00" routeLength="194.90" waitingTime="32.00" waitingCount="1" stopTime="0.00" timeLoss="42.16" rerouteNo="0" devices="tripinfo_20" vType="DEFAULT_VEHTYPE" speedFactor="0.88" vaporized=""/>
    <tripinfo id="24" depart="24.00" departLane="-gneE14_0" departPos="5.10" departSpeed="0.00" departDelay="0.00" arrival="81.00" arrivalLane="gneE11_0" arrivalPos="92.80" arrivalSpeed="12.38" duration="57.00" routeLength="194.70" waitingTime="30.00" waitingCount="1" stopTime="0.00" timeLoss="41.01" rerouteNo="0" devices="tripinfo_24" vType="DEFAULT_VEHTYPE" speedFactor="0.94" vaporized=""/>
    <tripinfo id="27" depart="27.00" departLane="-gneE14_0" departPos="5.10" departSpeed="0.00" departDelay="0.00" arrival="83.00" arrivalLane="gneE13_0" arrivalPos="92.80" arrivalSpeed="13.45" duration="56.00" routeLength="189.53" waitingTime="30.00" waitingCount="1" stopTime="0.00" timeLoss="40.84" rerouteNo="0" devices="tripinfo_27" vType="DEFAULT_VEHTYPE" speedFactor="1.01" vaporized=""/>
    <tripinfo id="31" depart="31.00" departLane="-gneE14_0" departPos="5.10" departSpeed="0.00" departDelay="0.00" arrival="87.00" arrivalLane="gneE13_0" arrivalPos="92.80" arrivalSpeed="10.86" duration="56.00" routeLength="189.53" waitingTime="28.00" waitingCount="1" stopTime="0.00" timeLoss="38.20" rerouteNo="0" devices="tripinfo_31" vType="DEFAULT_VEHTYPE" speedFactor="0.83" vaporized=""/>
    <tripinfo id="37" depart="37.00" departLane="-gneE14_0" departPos="5.10" departSpeed="0.00" departDelay="0.00" arrival="87.00" arrivalLane="gneE11_0" arrivalPos="92.80" arrivalSpeed="15.85" duration="50.00" routeLength="194.70" waitingTime="24.00" waitingCount="1" stopTime="0.00" timeLoss="37.42" rerouteNo="0" devices="tripinfo_37" vType="DEFAULT_VEHTYPE" speedFactor="1.18" vaporized=""/>
    <tripinfo id="1" depart="1.00" departLane="-gneE13_0" departPos="5.10" departSpeed="0.00" departDelay="0.00" arrival="92.00" arrivalLane="-gneE12_0" arrivalPos="92.80" arrivalSpeed="12.05" duration="91.00" routeLength="189.53" waitingTime="66.00" waitingCount="1" stopTime="0.00" timeLoss="75.19" rerouteNo="0" devices="tripinfo_1" vType="DEFAULT_VEHTYPE" speedFactor="0.94" vaporized=""/>
    <tripinfo id="4" depart="4.00" departLane="-gneE13_0" departPos="5.10" departSpeed="0.00" departDelay="0.00" arrival="93.00" arrivalLane="-gneE12_0" arrivalPos="92.80" arrivalSpeed="14.88" duration="89.00" routeLength="189.53" waitingTime="64.00" waitingCount="1" stopTime="0.00" timeLoss="75.75" rerouteNo="0" devices="tripinfo_4" vType="DEFAULT_VEHTYPE" speedFactor="1.08" vaporized=""/>
    <tripinfo id="11" depart="11.00" departLane="-gneE13_0" departPos="5.10" departSpeed="0.00" departDelay="0.00" arrival="97.00" arrivalLane="-gneE12_0" arrivalPos="92.80" arrivalSpeed="11.87" duration="86.00" routeLength="189.53" waitingTime="59.00" waitingCount="1" stopTime="0.00" timeLoss="69.29" rerouteNo="0" devices="tripinfo_11" vType="DEFAULT_VEHTYPE" speedFactor="0.86" vaporized=""/>
    <tripinfo id="25" depart="25.00" departLane="-gneE13_0" departPos="5.10" departSpeed="0.00" departDelay="0.00" arrival="99.00" arrivalLane="-gneE12_0" arrivalPos="92.80" arrivalSpeed="15.41" duration="74.00" routeLength="189.53" waitingTime="49.00" waitingCount="1" stopTime="0.00" timeLoss="60.89" rerouteNo="0" devices="tripinfo_25" vType="DEFAULT_VEHTYPE" speedFactor="1.16" vaporized=""/>
    <tripinfo id="26" depart="28.00" departLane="-gneE13_0" departPos="5.10" departSpeed="0.00" departDelay="2.00" arrival="101.00" arrivalLane="gneE14_0" arrivalPos="92.80" arrivalSpeed="13.90" duration="73.00" routeLength="194.70" waitingTime="44.00" waitingCount="1" stopTime="0.00" timeLoss="58.41" rerouteNo="0" devices="tripinfo_26" vType="DEFAULT_VEHTYPE" speedFactor="1.02" vaporized=""/>
    <tripinfo id="34" depart="34.00" departLane="-gneE13_0" departPos="5.10" departSpeed="0.00" departDelay="0.00" arrival="103.00" arrivalLane="gneE11_0" arrivalPos="92.80" arrivalSpeed="12.34" duration="69.00" routeLength="194.90" waitingTime="42.00" waitingCount="1" stopTime="0.00" timeLoss="53.78" rerouteNo="0" devices="tripinfo_34" vType="DEFAULT_VEHTYPE" speedFactor="0.95" vaporized=""/>
    <tripinfo id="39" depart="39.00" departLane="-gneE13_0" departPos="5.10" departSpeed="0.00" departDelay="0.00" arrival="106.00" arrivalLane="-gneE12_0" arrivalPos="92.80" arrivalSpeed="12.75" duration="67.00" routeLength="189.53" waitingTime="38.00" waitingCount="1" stopTime="0.00" timeLoss="52.09" rerouteNo="0" devices="tripinfo_39" vType="DEFAULT_VEHTYPE" speedFactor="1.01" vaporized=""/>
    <tripinfo id="22" depart="22.00" departLane="-gneE11_0" departPos="5.10" departSpeed="0.00" departDelay="0.00" arrival="109.00" arrivalLane="-gneE12_0" arrivalPos="92.80" arrivalSpeed="12.66" duration="87.00" routeLength="194.70" waitingTime="64.00" waitingCount="1" stopTime="0.00" timeLoss="70.79" rerouteNo="0" devices="tripinfo_22" vType="DEFAULT_VEHTYPE" speedFactor="0.94" vaporized=""/>
    <tripinfo id="28" depart="28.00" departLane="-gneE11_0" departPos="5.10" departSpeed="0.00" departDelay="0.00" arrival="110.00" arrivalLane="gneE13_0" arrivalPos="92.80" arrivalSpeed="13.52" duration="82.00" routeLength="194.90" waitingTime="58.00" waitingCount="1" stopTime="0.00" timeLoss="67.39" rerouteNo="0" devices="tripinfo_28" vType="DEFAULT_VEHTYPE" speedFactor="0.97" vaporized=""/>
    <tripinfo id="33" depart="33.00" departLane="-gneE11_0" departPos="5.10" departSpeed="0.00" departDelay="0.00" arrival="114.00" arrivalLane="-gneE12_0" arrivalPos="92.80" arrivalSpeed="11.73" duration="81.00" routeLength="194.70" waitingTime="53.00" waitingCount="1" stopTime="0.00" timeLoss="64.13" rerouteNo="0" devices="tripinfo_33" vType="DEFAULT_VEHTYPE" speedFactor="0.92" vaporized=""/>
    <tripinfo id="35" depart="36.00" departLane="-gneE11_0" departPos="5.10" departSpeed="0.00" departDelay="1.00" arrival="114.00" arrivalLane="gneE14_0" arrivalPos="92.80" arrivalSpeed="14.89" duration="78.00" routeLength="189.53" waitingTime="52.00" waitingCount="1" stopTime="0.00" timeLoss="64.80" rerouteNo="0" devices="tripinfo_35" vType="DEFAULT_VEHTYPE" speedFactor="1.13" vaporized=""/>
    <tripinfo id="45" depart="47.00" departLane="-gneE11_0" departPos="5.10" departSpeed="0.00" departDelay="2.00" arrival="117.00" arrivalLane="gneE13_0" arrivalPos="92.80" arrivalSpeed="16.25" duration="70.00" routeLength="194.90" waitingTime="45.00" waitingCount="1" stopTime="0.00" timeLoss="58.05" rerouteNo="0" devices="tripinfo_45" vType="DEFAULT_VEHTYPE" speedFactor="1.18" vaporized=""/>
    <tripinfo id="44" depart="44.00" departLane="-gneE11_0" departPos="5.10" departSpeed="0.00" departDelay="0.00" arrival="118.00" arrivalLane="-gneE12_0" arrivalPos="92.80" arrivalSpeed="13.29" duration="74.00" routeLength="194.70" waitingTime="46.00" waitingCount="1" stopTime="0.00" timeLoss="57.93" rerouteNo="0" devices="tripinfo_44" vType="DEFAULT_VEHTYPE" speedFactor="0.97" vaporized=""/>
    <tripinfo id="50" depart="50.00" departLane="-gneE11_0" departPos="5.10" departSpeed="0.00" departDelay="0.00" arrival="120.00" arrivalLane="gneE13_0" arrivalPos="92.80" arrivalSpeed="12.16" duration="70.00" routeLength="194.90" waitingTime="43.00" waitingCount="1" stopTime="0.00" timeLoss="55.27" rerouteNo="0" devices="tripinfo_50" vType="DEFAULT_VEHTYPE" speedFactor="0.96" vaporized=""/>
    <tripinfo id="55" depart="55.00" departLane="gneE12_0" departPos="5.10" departSpeed="0.00" departDelay="0.00" arrival="123.00" arrivalLane="gneE11_0" arrivalPos="92.80" arrivalSpeed="14.07" duration="68.00" routeLength="189.53" waitingTime="44.00" waitingCount="1" stopTime="0.00" timeLoss="53.70" rerouteNo="0" devices="tripinfo_55" vType="DEFAULT_VEHTYPE" speedFactor="1.04" vaporized=""/>
    <tripinfo id="57" depart="58.00" departLane="gneE12_0" departPos="5.10" departSpeed="0.00" departDelay="1.00" arrival="125.00" arrivalLane="gneE14_0" arrivalPos="92.80" arrivalSpeed="13.33" duration="67.00" routeLength="194.90" waitingTime="44.00" waitingCount="1" stopTime="0.00" timeLoss="52.75" rerouteNo="0" devices="tripinfo_57" vType="DEFAULT_VEHTYPE" speedFactor="1.00" vaporized=""/>
    <tripinfo id="60" depart="61.00" departLane="gneE12_0" departPos="5.10" departSpeed="0.00" departDelay="1.00" arrival="130.00" arrivalLane="gneE13_0" arrivalPos="92.80" arrivalSpeed="11.17" duration="69.00" routeLength="194.70" waitingTime="41.00" waitingCount="1" stopTime="0.00" timeLoss="51.36" rerouteNo="0" devices="tripinfo_60" vType="DEFAULT_VEHTYPE" speedFactor="0.88" vaporized=""/>
    <tripinfo id="64" depart="67.00" departLane="gneE12_0" departPos="5.10" departSpeed="0.00" departDelay="3.00" arrival="131.00" arrivalLane="gneE14_0" arrivalPos="92.80" arrivalSpeed="16.11" duration="64.00" routeLength="194.90" waitingTime="39.00" waitingCount="1" stopTime="0.00" timeLoss="51.93" rerouteNo="0" devices="tripinfo_64" vType="DEFAULT_VEHTYPE" speedFactor="1.17" vaporized=""/>
    <tripinfo id="61" depart="64.00" departLane="gneE12_0" departPos="5.10" departSpeed="0.00" departDelay="3.00" arrival="132.00" arrivalLane="gneE13_0" arrivalPos="92.80" arrivalSpeed="11.20" duration="68.00" routeLength="194.70" waitingTime="40.00" waitingCount="1" stopTime="0.00" timeLoss="50.35" rerouteNo="0" devices="tripinfo_61" vType="DEFAULT_VEHTYPE" speedFactor="0.85" vaporized=""/>
    <tripinfo id="66" depart="70.00" departLane="gneE12_0" departPos="5.10" departSpeed="0.00" departDelay="4.00" arrival="133.00" arrivalLane="gneE14_0" arrivalPos="92.80" arrivalSpeed="14.65" duration="63.00" routeLength="194.90" waitingTime="38.00" waitingCount="1" stopTime="0.00" timeLoss="50.04" rerouteNo="0" devices="tripinfo_66" vType="DEFAULT_VEHTYPE" speedFactor="1.10" vaporized=""/>
    <tripinfo id="75" depart="75.00" departLane="gneE12_0" departPos="5.10" departSpeed="0.00" departDelay="0.00" arrival="137.00" arrivalLane="gneE13_0" arrivalPos="92.80" arrivalSpeed="13.53" duration="62.00" routeLength="194.70" waitingTime="36.00" waitingCount="1" stopTime="0.00" timeLoss="47.17" rerouteNo="0" devices="tripinfo_75" vType="DEFAULT_VEHTYPE" speedFactor="1.02" vaporized=""/>
    <tripinfo id="63" depart="63.00" departLane="-gneE11_0" departPos="5.10" departSpeed="0.00" departDelay="0.00" arrival="140.00" arrivalLane="gneE14_0" arrivalPos="92.80" arrivalSpeed="11.53" duration="77.00" routeLength="189.53" waitingTime="44.00" waitingCount="2" stopTime="0.00" timeLoss="59.91" rerouteNo="0" devices="tripinfo_63" vType="DEFAULT_VEHTYPE" speedFactor="0.85" vaporized=""/>
    <tripinfo id="68" depart="68.00" departLane="-gneE11_0" departPos="5.10" departSpeed="0.00" departDelay="0.00" arrival="142.00" arrivalLane="gneE14_0" arrivalPos="92.80" arrivalSpeed="12.88" duration="74.00" routeLength="189.53" waitingTime="42.00" waitingCount="2" stopTime="0.00" timeLoss="58.92" rerouteNo="0" devices="tripinfo_68" vType="DEFAULT_VEHTYPE" speedFactor="1.00" vaporized=""/>
    <tripinfo id="77" depart="77.00" departLane="-gneE11_0" departPos="5.10" departSpeed="0.00" departDelay="0.00" arrival="144.00" arrivalLane="-gneE12_0" arrivalPos="92.80" arrivalSpeed="13.16" duration="67.00" routeLength="194.70" waitingTime="33.00" waitingCount="2" stopTime="0.00" timeLoss="51.41" rerouteNo="0" devices="tripinfo_77" vType="DEFAULT_VEHTYPE" speedFactor="0.97" vaporized=""/>
    <tripinfo id="79" depart="80.00" departLane="-gneE11_0" departPos="5.10" departSpeed="0.00" departDelay="1.00" arrival="146.00" arrivalLane="-gneE12_0" arrivalPos="92.80" arrivalSpeed="14.03" duration="66.00" routeLength="194.70" waitingTime="31.00" waitingCount="2" stopTime="0.00" timeLoss="51.81" rerouteNo="0" devices="tripinfo_79" vType="DEFAULT_VEHTYPE" speedFactor="1.08" vaporized=""/>
    <tripinfo id="80" depart="83.00" departLane="-gneE11_0" departPos="5.10" departSpeed="0.00" departDelay="3.00" arrival="147.00" arrivalLane="gneE13_0" arrivalPos="92.80" arrivalSpeed="14.44" duration="64.00" routeLength="194.90" waitingTime="31.00" waitingCount="2" stopTime="0.00" timeLoss="50.80" rerouteNo="0" devices="tripinfo_80" vType="DEFAULT_VEHTYPE" speedFactor="1.12" vaporized=""/>
    <tripinfo id="81" depart="112.00" departLane="-gneE11_0" departPos="5.10" departSpeed="0.00" departDelay="31.00" arrival="151.00" arrivalLane="gneE14_0" arrivalPos="92.80" arrivalSpeed="13.45" duration="39.00" routeLength="189.53" waitingTime="9.00" waitingCount="1" stopTime="0.00" timeLoss="24.09" rerouteNo="0" devices="tripinfo_81" vType="DEFAULT_VEHTYPE" speedFactor="1.02" vaporized=""/>
    <tripinfo id="83" depart="115.00" departLane="-gneE11_0" departPos="5.10" departSpeed="0.00" departDelay="32.00" arrival="152.00" arrivalLane="gneE13_0" arrivalPos="92.80" arrivalSpeed="12.89" duration="37.00" routeLength="194.90" waitingTime="9.00" waitingCount="1" stopTime="0.00" timeLoss="22.72" rerouteNo="0" devices="tripinfo_83" vType="DEFAULT_VEHTYPE" speedFactor="0.99" vaporized=""/>
    <tripinfo id="85" depart="85.00" departLane="gneE12_0" departPos="5.10" departSpeed="0.00" departDelay="0.00" arrival="156.00" arrivalLane="gneE13_0" arrivalPos="92.80" arrivalSpeed="12.19" duration="71.00" routeLength="194.70" waitingTime="40.00" waitingCount="2" stopTime="0.00" timeLoss="54.38" rerouteNo="0" devices="tripinfo_85" vType="DEFAULT_VEHTYPE" speedFactor="0.88" vaporized=""/>
    <tripinfo id="99" depart="99.00" departLane="gneE12_0" departPos="5.10" departSpeed="0.00" departDelay="0.00" arrival="158.00" arrivalLane="gneE14_0" arrivalPos="92.80" arrivalSpeed="12.37" duration="59.00" routeLength="194.90" waitingTime="26.00" waitingCount="2" stopTime="0.00" timeLoss="43.65" rerouteNo="0" devices="tripinfo_99" vType="DEFAULT_VEHTYPE" speedFactor="0.96" vaporized=""/>
    <tripinfo id="100" depart="102.00" departLane="gneE12_0" departPos="5.10" departSpeed="0.00" departDelay="2.00" arrival="160.00" arrivalLane="gneE14_0" arrivalPos="92.80" arrivalSpeed="12.86" duration="58.00" routeLength="194.90" waitingTime="25.00" waitingCount="2" stopTime="0.00" timeLoss="43.15" rerouteNo="0" devices="tripinfo_100" vType="DEFAULT_VEHTYPE" speedFactor="0.98" vaporized=""/>
    <tripinfo id="107" depart="107.00" departLane="gneE12_0" departPos="5.10" departSpeed="0.00" departDelay="0.00" arrival="162.00" arrivalLane="gneE14_0" arrivalPos="92.80" arrivalSpeed="13.82" duration="55.00" routeLength="194.90" waitingTime="22.00" waitingCount="2" stopTime="0.00" timeLoss="40.10" rerouteNo="0" devices="tripinfo_107" vType="DEFAULT_VEHTYPE" speedFactor="1.00" vaporized=""/>
    <tripinfo id="110" depart="110.00" departLane="gneE12_0" departPos="5.10" departSpeed="0.00" departDelay="0.00" arrival="166.00" arrivalLane="gneE13_0" arrivalPos="92.80" arrivalSpeed="12.49" duration="56.00" routeLength="194.70" waitingTime="23.00" waitingCount="2" stopTime="0.00" timeLoss="40.11" rerouteNo="0" devices="tripinfo_110" vType="DEFAULT_VEHTYPE" speedFactor="0.97" vaporized=""/>
    <tripinfo id="127" depart="128.00" departLane="gneE12_0" departPos="5.10" departSpeed="0.00" departDelay="1.00" arrival="166.00" arrivalLane="gneE14_0" arrivalPos="92.80" arrivalSpeed="14.76" duration="38.00" routeLength="194.90" waitingTime="10.00" waitingCount="1" stopTime="0.00" timeLoss="24.55" rerouteNo="0" devices="tripinfo_127" vType="DEFAULT_VEHTYPE" speedFactor="1.09" vaporized=""/>
    <tripinfo id="130" depart="131.00" departLane="gneE12_0" departPos="5.10" departSpeed="0.00" departDelay="1.00" arrival="169.00" arrivalLane="gneE14_0" arrivalPos="92.80" arrivalSpeed="11.65" duration="38.00" routeLength="194.90" waitingTime="9.00" waitingCount="1" stopTime="0.00" timeLoss="22.06" rerouteNo="0" devices="tripinfo_130" vType="DEFAULT_VEHTYPE" speedFactor="0.91" vaporized=""/>
    <tripinfo id="84" depart="118.00" departLane="-gneE11_0" departPos="5.10" departSpeed="0.00" departDelay="34.00" arrival="172.00" arrivalLane="-gneE12_0" arrivalPos="92.80" arrivalSpeed="12.49" duration="54.00" routeLength="194.70" waitingTime="21.00" waitingCount="2" stopTime="0.00" timeLoss="37.87" rerouteNo="0" devices="tripinfo_84" vType="DEFAULT_VEHTYPE" speedFactor="0.94" vaporized=""/>
    <tripinfo id="96" depart="121.00" departLane="-gneE11_0" departPos="5.10" departSpeed="0.00" departDelay="25.00" arrival="174.00" arrivalLane="gneE14_0" arrivalPos="92.80" arrivalSpeed="12.63" duration="53.00" routeLength="189.53" waitingTime="17.00" waitingCount="2" stopTime="0.00" timeLoss="37.72" rerouteNo="0" devices="tripinfo_96" vType="DEFAULT_VEHTYPE" speedFactor="0.97" vaporized=""/>
    <tripinfo id="112" depart="124.00" departLane="-gneE11_0" departPos="5.10" departSpeed="0.00" departDelay="12.00" arrival="175.00" arrivalLane="gneE13_0" arrivalPos="92.80" arrivalSpeed="13.45" duration="51.00" routeLength="194.90" waitingTime="15.00" waitingCount="2" stopTime="0.00" timeLoss="36.57" rerouteNo="0" devices="tripinfo_112" vType="DEFAULT_VEHTYPE" speedFactor="0.98" vaporized=""/>
    <tripinfo id="114" depart="127.00" departLane="-gneE11_0" departPos="5.10" departSpeed="0.00" departDelay="13.00" arrival="179.00" arrivalLane="gneE14_0" arrivalPos="92.80" arrivalSpeed="13.40" duration="52.00" routeLength="189.53" waitingTime="13.00" waitingCount="2" stopTime="0.00" timeLoss="36.89" rerouteNo="0" devices="tripinfo_114" vType="DEFAULT_VEHTYPE" speedFactor="1.00" vaporized=""/>
    <tripinfo id="115" depart="130.00" departLane="-gneE11_0" departPos="5.10" departSpeed="0.00" departDelay="15.00" arrival="181.00" arrivalLane="-gneE12_0" arrivalPos="92.80" arrivalSpeed="14.06" duration="51.00" routeLength="194.70" waitingTime="13.00" waitingCount="2" stopTime="0.00" timeLoss="36.38" rerouteNo="0" devices="tripinfo_115" vType="DEFAULT_VEHTYPE" speedFactor="1.04" vaporized=""/>
    <tripinfo id="117" depart="143.00" departLane="-gneE11_0" departPos="5.10" departSpeed="0.00" departDelay="26.00" arrival="183.00" arrivalLane="-gneE12_0" arrivalPos="92.80" arrivalSpeed="13.66" duration="40.00" routeLength="194.70" waitingTime="9.00" waitingCount="1" stopTime="0.00" timeLoss="25.38" rerouteNo="0" devices="tripinfo_117" vType="DEFAULT_VEHTYPE" speedFactor="1.02" vaporized=""/>
    <tripinfo id="122" depart="146.00" departLane="-gneE11_0" departPos="5.10" departSpeed="0.00" departDelay="24.00" arrival="185.00" arrivalLane="gneE13_0" arrivalPos="92.80" arrivalSpeed="11.87" duration="39.00" routeLength="194.90" waitingTime="9.00" waitingCount="1" stopTime="0.00" timeLoss="22.98" rerouteNo="0" devices="tripinfo_122" vType="DEFAULT_VEHTYPE" speedFactor="0.89" vaporized=""/>
    <tripinfo id="132" depart="134.00" departLane="gneE12_0" departPos="5.10" departSpeed="0.00" departDelay="2.00" arrival="187.00" arrivalLane="gneE13_0" arrivalPos="92.80" arrivalSpeed="14.65" duration="53.00" routeLength="194.70" waitingTime="20.00" waitingCount="2" stopTime="0.00" timeLoss="39.46" rerouteNo="0" devices="tripinfo_132" vType="DEFAULT_VEHTYPE" speedFactor="1.10" vaporized=""/>
    <tripinfo id="135" depart="137.00" departLane="gneE12_0" departPos="5.10" departSpeed="0.00" departDelay="2.00" arrival="190.00" arrivalLane="gneE11_0" arrivalPos="92.80" arrivalSpeed="12.19" duration="53.00" routeLength="189.53" waitingTime="18.00" waitingCount="2" stopTime="0.00" timeLoss="37.42" rerouteNo="0" devices="tripinfo_135" vType="DEFAULT_VEHTYPE" speedFactor="0.96" vaporized=""/>
    <tripinfo id="150" depart="150.00" departLane="gneE12_0" departPos="5.10" departSpeed="0.00" departDelay="0.00" arrival="193.00" arrivalLane="gneE13_0" arrivalPos="92.80" arrivalSpeed="13.81" duration="43.00" routeLength="194.70" waitingTime="10.00" waitingCount="1" stopTime="0.00" timeLoss="27.43" rerouteNo="0" devices="tripinfo_150" vType="DEFAULT_VEHTYPE" speedFactor="1.01" vaporized=""/>
    <tripinfo id="151" depart="153.00" departLane="gneE12_0" departPos="5.10" departSpeed="0.00" departDelay="2.00" arrival="194.00" arrivalLane="gneE13_0" arrivalPos="92.80" arrivalSpeed="14.67" duration="41.00" routeLength="194.70" waitingTime="10.00" waitingCount="1" stopTime="0.00" timeLoss="27.24" rerouteNo="0" devices="tripinfo_151" vType="DEFAULT_VEHTYPE" speedFactor="1.10" vaporized=""/>
    <tripinfo id="154" depart="156.00" departLane="gneE12_0" departPos="5.10" departSpeed="0.00" departDelay="2.00" arrival="195.00" arrivalLane="gneE14_0" arrivalPos="92.80" arrivalSpeed="13.78" duration="39.00" routeLength="194.90" waitingTime="9.00" waitingCount="1" stopTime="0.00" timeLoss="24.86" rerouteNo="0" devices="tripinfo_154" vType="DEFAULT_VEHTYPE" speedFactor="1.00" vaporized=""/>